version 2
run nodebug-0-20140420-16:55:31-8878
attr configname nodebug
attr datetime 20140420-16:55:31
attr experiment nodebug
attr inifile omnetpp.ini
attr iterationvars ""
attr iterationvars2 $repetition=0
attr measurement ""
attr network scenario
attr processid 8878
attr repetition 0
attr replication #0
attr resultdir results
attr runnumber 0
attr seedset 0

vector 2  scenario.node[0].mobility  posx  ETV
vector 3  scenario.node[0].mobility  posy  ETV
vector 4  scenario.node[0].mobility  speed  ETV
vector 5  scenario.node[0].mobility  acceleration  ETV
vector 6  scenario.node[0].mobility  co2emission  ETV
vector 9  scenario.node[1].mobility  posx  ETV
vector 10  scenario.node[1].mobility  posy  ETV
vector 11  scenario.node[1].mobility  speed  ETV
vector 12  scenario.node[1].mobility  acceleration  ETV
vector 13  scenario.node[1].mobility  co2emission  ETV
6	4	0.3	1.4276208928798
6	5	0.4	1.5553504369406
6	6	0.5	1.6547258140606
6	7	0.6	1.7983555805977
6	8	0.7	1.8323674505787
6	9	0.8	2.0110897446338
6	10	0.9	1.970451684244
6	11	1	2.244901373431
6	12	1.1	2.2119208452933
6	13	1.2	2.2548819012347
6	14	1.3	2.5345448660167
6	15	1.4	2.6013847819414
6	16	1.5	2.852151772081
6	17	1.6	2.3526342216865
6	18	1.7	3.339605186172
6	19	1.8	2.4276646371033
6	20	1.9	3.3234379637286
6	21	2	3.3108190720898
6	22	2.1	3.2988402737822
6	23	2.2	2.9578171889378
6	24	2.3	2.9959376211745
6	25	2.4	3.4908200907348
6	26	2.5	3.6670806850063
6	27	2.6	3.6268696198063
6	28	2.7	4.0205201967415
6	29	2.8	3.1988957479633
6	30	2.9	3.4137976506977
6	31	3	4.907912272511
6	32	3.1	4.5496391886597
6	33	3.2	4.0493396352257
6	34	3.3	4.7127105703214
6	35	3.4	3.5849549246234
6	36	3.5	5.4119719370853
6	37	3.6	3.9243362755562
6	38	3.7	4.8911565617635
6	39	3.8	4.229470443535
6	40	3.9	4.9699643867149
6	41	4	4.6814760846945
6	42	4.1	4.6589858707173
6	43	4.2	5.0919178208176
6	44	4.3	5.3034213794207
5	4	0.3	2.4479752470855
5	5	0.4	2.3290637582572
5	6	0.5	2.1818481258762
5	7	0.6	2.2357036410334
5	8	0.7	1.9855717337837
5	9	0.8	2.1556800054752
5	10	0.9	1.8177961522857
5	11	1	2.1703654659723
5	12	1.1	1.8999668675033
5	13	1.2	1.8135391334582
5	14	1.3	2.1003037793096
5	15	1.4	2.0311366270296
5	16	1.5	2.213205013168
5	17	1.6	1.4406950977165
5	18	1.7	2.5262731315568
5	19	1.8	1.3472384067252
5	20	1.9	2.2455468171276
5	21	2	2.1015260222834
5	22	2.1	1.979035354848
5	23	2.2	1.5707574565429
5	24	2.3	1.5441806555958
5	25	2.4	1.9124366020085
5	26	2.5	1.9760296771768
5	27	2.6	1.861542067118
5	28	2.7	2.0893797688885
5	29	2.8	1.3967243768042
5	30	2.9	1.5130976005224
5	31	3	2.5076531236758
5	32	3.1	2.16138498988
5	33	3.2	1.7573765604757
5	34	3.3	2.121286001429
5	35	3.4	1.3556982993847
5	36	3.5	2.4175439893501
5	37	3.6	1.4688865736127
5	38	3.7	1.9843095479766
5	39	3.8	1.5588160217507
5	40	3.9	1.9233792753657
5	41	4	1.71745660624
5	42	4.1	1.6631775529357
5	43	4.2	1.8433742713882
5	44	4.3	1.9014148032991
4	3	0.2	0.25286542447004
4	4	0.3	0.49766294917859
4	5	0.4	0.73056932500431
4	6	0.5	0.94875413759194
4	7	0.6	1.1723245016953
4	8	0.7	1.3708816750736
4	9	0.8	1.5864496756212
4	10	0.9	1.7682292908497
4	11	1	1.985265837447
4	12	1.1	2.1752625241973
4	13	1.2	2.3566164375431
4	14	1.3	2.5666468154741
4	15	1.4	2.769760478177
4	16	1.5	2.9910809794938
4	17	1.6	3.1351504892655
4	18	1.7	3.3877778024212
4	19	1.8	3.5225016430937
4	20	1.9	3.7470563248065
4	21	2	3.9572089270348
4	22	2.1	4.1551124625196
4	23	2.2	4.3121882081739
4	24	2.3	4.4666062737335
4	25	2.4	4.6578499339343
4	26	2.5	4.855452901652
4	27	2.6	5.0416071083638
4	28	2.7	5.2505450852527
4	29	2.8	5.3902175229331
4	30	2.9	5.5415272829853
4	31	3	5.7922925953529
4	32	3.1	6.0084310943409
4	33	3.2	6.1841687503885
4	34	3.3	6.3962973505314
4	35	3.4	6.5318671804698
4	36	3.5	6.7736215794049
4	37	3.6	6.9205102367661
4	38	3.7	7.1189411915638
4	39	3.8	7.2748227937388
4	40	3.9	7.4671607212754
4	41	4	7.6389063818994
4	42	4.1	7.805224137193
4	43	4.2	7.9895615643318
4	44	4.3	8.1797030446617
3	2	0.1	1578.0861981846
3	3	0.2	1578.0861981846
3	4	0.3	1578.0949142436
3	5	0.4	1578.1120682675
3	6	0.5	1578.1372503797
3	7	0.6	1578.1699531386
3	8	0.7	1578.2103621801
3	9	0.8	1578.2576153213
3	10	0.9	1578.3122989107
3	11	1	1578.3732482903
3	12	1.1	1578.4416787382
3	13	1.2	1578.5166582121
3	14	1.3	1578.597888804
3	15	1.4	1578.6863589659
3	16	1.5	1578.7818302857
3	17	1.6	1578.8849303368
3	18	1.7	1578.9929963434
3	19	1.8	1579.1097702021
3	20	1.9	1579.2311878782
3	21	2	1579.3603457659
3	22	2.1	1579.4967474369
3	23	2.2	1579.639970677
3	24	2.3	1579.7886081859
3	25	2.4	1579.9425683571
3	26	2.5	1580.1031205356
3	27	2.6	1580.2704839231
3	28	2.7	1580.4442638904
3	29	2.8	1580.6252457732
3	30	2.9	1580.811042049
3	31	3	1581.0020538447
3	32	3.1	1581.2780427998
3	33	3.2	1581.7056091744
3	34	3.3	1582.1456812285
3	35	3.4	1582.6008485798
3	36	3.5	1583.065663225
3	37	3.6	1583.5476813717
3	38	3.7	1584.0401522713
3	39	3.8	1584.546743731
3	40	3.9	1585.0644278908
3	41	4	1585.5957990233
3	42	4.1	1586.1393917613
3	43	4.2	1586.6948198471
3	44	4.3	1587.2633655816
2	2	0.1	2415.8693384473
2	3	0.2	2415.8693384473
2	4	0.3	2415.8456015659
2	5	0.4	2415.7988851495
2	6	0.5	2415.7303054393
2	7	0.6	2415.6412443722
2	8	0.7	2415.5311963976
2	9	0.8	2415.4025095438
2	10	0.9	2415.2535869774
2	11	1	2415.087600468
2	12	1.1	2414.901240391
2	13	1.2	2414.6970450213
2	14	1.3	2414.4758256701
2	15	1.4	2414.2348904315
2	16	1.5	2413.9748885889
2	17	1.6	2413.6941110371
2	18	1.7	2413.39980945
2	19	1.8	2413.0817933335
2	20	1.9	2412.7511304746
2	21	2	2412.399388309
2	22	2.1	2412.0279187827
2	23	2.2	2411.6378717351
2	24	2.3	2411.2330797365
2	25	2.4	2410.8137922671
2	26	2.5	2410.3765524497
2	27	2.6	2409.9207633259
2	28	2.7	2409.4474996093
2	29	2.8	2408.9546225508
2	30	2.9	2408.4486342174
2	31	3	2407.9284421949
2	32	3.1	2407.4338371803
2	33	3.2	2407.011700428
2	34	3.3	2406.5772168046
2	35	3.4	2406.1278295772
2	36	3.5	2405.6689175658
2	37	3.6	2405.1930205188
2	38	3.7	2404.7068034564
2	39	3.8	2404.2066451509
2	40	3.9	2403.6955350091
2	41	4	2403.1709117045
2	42	4.1	2402.6342219962
2	43	4.2	2402.0858472346
2	44	4.3	2401.5245214045
13	34	3.3	1.4591560607548
13	35	3.4	1.5551765557154
13	36	3.5	1.6713259314326
13	37	3.6	1.751110126489
13	38	3.7	1.7997946283421
13	39	3.8	1.9184258662613
13	40	3.9	2.1297162876523
13	41	4	2.0565128501347
13	42	4.1	2.5286235186762
13	43	4.2	2.2676420319098
13	44	4.3	2.7661246781391
12	34	3.3	2.5947546667255
12	35	3.4	2.2759681760007
12	36	3.5	2.2086106502913
12	37	3.6	2.0663342593236
12	38	3.7	1.8986075509574
12	39	3.8	1.9513650097067
12	40	3.9	2.1804157295528
12	41	4	1.8052367339322
12	42	4.1	2.4688930025191
12	43	4.2	1.8116538155079
12	44	4.3	2.413640728849
11	33	3.2	0.25886731913942
11	34	3.3	0.51834278581197
11	35	3.4	0.74593960341204
11	36	3.5	0.96680066844117
11	37	3.6	1.1734340943735
11	38	3.7	1.3632948494693
11	39	3.8	1.5584313504399
11	40	3.9	1.7764729233952
11	41	4	1.9569965967884
11	42	4.1	2.2038858970404
11	43	4.2	2.3850512785911
11	44	4.3	2.626415351476
10	32	3.1	1578.0861981846
10	33	3.2	1578.0861981846
10	34	3.3	1578.0951211238
10	35	3.4	1578.1129879644
10	36	3.5	1578.1386998771
10	37	3.6	1578.172024685
10	38	3.7	1578.2124719732
10	39	3.8	1578.2594636027
10	40	3.9	1578.3131814245
10	41	4	1578.3744149553
10	42	4.1	1578.4418709856
10	43	4.2	1578.517837083
10	44	4.3	1578.6000477998
9	32	3.1	2415.8693384473
9	33	3.2	2415.8693384473
9	34	3.3	2415.8450381585
9	35	3.4	2415.7963804927
9	36	3.5	2415.72635795
9	37	3.6	2415.6356028261
9	38	3.7	2415.5254506923
9	39	3.8	2415.397476026
9	40	3.9	2415.2511835844
9	41	4	2415.084423232
9	42	4.1	2414.9007168339
9	43	4.2	2414.6938345425
9	44	4.3	2414.4699459673
